LAMMPS (20 Nov 2019)
# quench glass from melted beta cristobalite SiO2
# Aurélien Legoupil, January 2023
# PSFC - MIT

# This version is inspired by the OSU thesis


# ---------- INITIALIZATION ----------------------------------------------------
clear
echo         	both
timer		full
New timer settings: style=full  mode=nosync  timeout=off
units		metal
dimension	3
processors	* * *
boundary	p p p

# -------- SEEDS ---------------------------------------------------------------
variable    VSeed equal 789456
variable    TSeed equal 852456
variable    swapSeed equal 123456

# ---------- GEOMETRY DEFINITION -----------------------------------------------

atom_style	 charge
#atom_modify	 map array
read_data        beta-cristobalite.data
  orthogonal box = (0 0 0) to (111 111 111)
  1 by 2 by 2 MPI processor grid
  reading atoms ...
  81000 atoms
  read_data CPU = 0.0981909 secs

group    Si type 1
27000 atoms in group Si
group    O type 2
54000 atoms in group O

# ---------- POTENTIAL ---------------------------------------------------------
pair_style tersoff
pair_coeff	* * /home/aurelienlegoupil/projects/LAMMPS_studies/INTERATOMIC_POTENTIALS/2007_SiO.tersoff Si O

# ---------- SETTINGS ----------------------------------------------------------
# COMPUTES
#compute	   myRDF all rdf 2000 1 1 2 2 1 2 2 1 cutoff 4

# VARIABLES
variable	filename string SiO2-glass-thesisquench

variable	dt equal 0.001

variable	Temp1 equal 7000
variable	t1 equal 200/dt
variable	Temp2 equal 7000
variable	t2 equal 100/dt
variable        t23 equal 470/dt
variable	Temp3 equal 300
variable	t3 equal 100/dt


variable	N equal count(all)

# --------- OUTPUT SETTINGS ----------------------------------------------------
# PRINT-SCREEN

thermo		100
thermo_style	custom step time temp pe press vol lx ly lz pxx pyy pzz ke density

dump            1 all custom 1000 dump_lammpstrj id type x y z

# --------- MINIMIZATION -------------------------------------------------------
minimize        1.0e-10 1.0e-10 100000 100000
WARNING: Using 'neigh_modify every 1 delay 0 check yes' setting during minimization (src/min.cpp:178)
Neighbor list info ...
  update every 1 steps, delay 0 steps, check yes
  max neighbors/atom: 2000, page size: 100000
  master list distance cutoff = 4.8
  ghost atom cutoff = 4.8
  binsize = 2.4, bins = 47 47 47
  1 neighbor lists, perpetual/occasional/extra = 1 0 0
  (1) pair tersoff, perpetual
      attributes: full, newton on
      pair build: full/bin/atomonly
      stencil: full/bin/3d
      bin: standard
Per MPI rank memory allocation (min/avg/max) = 12.51 | 12.51 | 12.51 Mbytes
Step Time Temp PotEng Press Volume Lx Ly Lz Pxx Pyy Pzz KinEng Density 
       0            0            0   -527742.37    104906.69      1367631          111          111          111    104906.69    104906.69    104906.69            0    1.9697218 
       9        0.009            0   -527743.44    104904.76      1367631          111          111          111    104904.76    104904.76    104904.76            0    1.9697218 
Loop time of 0.811053 on 4 procs for 9 steps with 81000 atoms

99.9% CPU use with 4 MPI tasks x no OpenMP threads

Minimization stats:
  Stopping criterion = energy tolerance
  Energy initial, next-to-last, final = 
        -527742.370416     -527743.436114     -527743.436123
  Force two-norm initial, final = 15.891 0.0273399
  Force max component initial, final = 0.0548674 9.37585e-05
  Final line search alpha, max atom move = 1 9.37585e-05
  Iterations, force evaluations = 9 18

MPI task timing breakdown:
Section |  min time  |  avg time  |  max time  |%varavg|  %CPU | %total
-----------------------------------------------------------------------
Pair    | 0.64435    | 0.65419    | 0.66055    |   0.7 | 100.0 | 80.66
Neigh   | 0          | 0          | 0          |   0.0 | 100.0 |  0.00
Comm    | 0.067224   | 0.07357    | 0.083293   |   2.2 | 100.0 |  9.07
Output  | 0          | 0          | 0          |   0.0 | 100.0 |  0.00
Modify  | 0          | 0          | 0          |   0.0 | 100.0 |  0.00
Other   |            | 0.08329    |            |       |       | 10.27

Nlocal:    20250 ave 20250 max 20250 min
Histogram: 4 0 0 0 0 0 0 0 0 0
Nghost:    11104 ave 11104 max 11104 min
Histogram: 4 0 0 0 0 0 0 0 0 0
Neighs:    0 ave 0 max 0 min
Histogram: 4 0 0 0 0 0 0 0 0 0
FullNghs:  486000 ave 486000 max 486000 min
Histogram: 4 0 0 0 0 0 0 0 0 0

Total # of neighbors = 1944000
Ave neighs/atom = 24
Neighbor list builds = 0
Dangerous builds = 0

# --------- SIMULATION STEPS ---------------------------------------------------

velocity   all create ${Temp1} ${TSeed} mom yes 		#If mom = yes, the linear momentum of the newly created ensemble of velocities is zeroed; if rot = yes, the angular momentum is zeroed.
velocity   all create 7000 ${TSeed} mom yes 		
velocity   all create 7000 852456 mom yes 		

timestep ${dt}
timestep 0.001

fix		1 all nvt temp ${Temp1} ${Temp1} 0.1
fix		1 all nvt temp 7000 ${Temp1} 0.1
fix		1 all nvt temp 7000 7000 0.1
run		${t1}
run		200000
Per MPI rank memory allocation (min/avg/max) = 10.26 | 10.26 | 10.26 Mbytes
Step Time Temp PotEng Press Volume Lx Ly Lz Pxx Pyy Pzz KinEng Density 
       9            0         7000   -527743.44    162143.82      1367631          111          111          111    162075.95       162443    161912.53    73289.597    1.9697218 
     100        0.091    4072.4853   -493919.35   -21769.753      1367631          111          111          111   -21102.507   -22322.345   -21884.406    42638.687    1.9697218 
     200        0.191     4588.655   -494262.45    7322.0693      1367631          111          111          111    7526.3509    7260.2885    7179.5685    48042.954    1.9697218 
     300        0.291    4859.6658   -491252.28    1268.6678      1367631          111          111          111     2020.092    1375.0315    410.87998    50880.422    1.9697218 
     400        0.391    5170.0331   -488195.28    3554.5027      1367631          111          111          111    3351.4858     3621.581    3690.4413    54129.949    1.9697218 
     500        0.491    5492.7163   -484934.39    2844.4962      1367631          111          111          111    2590.1698    2917.7848     3025.534    57508.424    1.9697218 
     600        0.591    5823.6435   -481638.84    4552.7258      1367631          111          111          111    4420.1721    4426.5154      4811.49    60973.212    1.9697218 
     700        0.691     6093.321   -477734.49    4857.4414      1367631          111          111          111    4905.9377    5089.3629    4577.0235    63796.721    1.9697218 
     800        0.791    6410.3823   -474586.78    5569.2818      1367631          111          111          111    5036.1106    6283.9078     5387.827    67116.334    1.9697218 
     900        0.891     6647.453   -471102.38    6144.4031      1367631          111          111          111    5533.8552      8208.12     4691.234    69598.451    1.9697218 
    1000        0.991    6835.5094   -467766.33    7919.0814      1367631          111          111          111    7341.0828    8666.6778    7749.4836     71567.39    1.9697218 
    1100        1.091    6948.9107   -464520.51    5565.1283      1367631          111          111          111    6073.0328     5459.737     5162.615    72754.695    1.9697218 
    1200        1.191    7044.6444   -462098.23    6630.7844      1367631          111          111          111    5730.1229    7756.0198    6406.2105    73757.022    1.9697218 
    1300        1.291    7047.1157   -460007.28    5653.7295      1367631          111          111          111    6773.4077    5043.3816    5144.3992    73782.896    1.9697218 
    1400        1.391    6995.5032    -458345.7    5107.1494      1367631          111          111          111    6051.5872    4865.1769    4404.6842    73242.516    1.9697218 
    1500        1.491    7000.8706   -457651.77    6381.2138      1367631          111          111          111    6608.3437    6394.8017    6140.4962    73298.712    1.9697218 
    1600        1.591    6955.7308   -456255.75    4373.2534      1367631          111          111          111    3489.3408    4079.2597    5551.1596    72826.101    1.9697218 
    1700        1.691    6990.3427   -455181.63    4528.5599      1367631          111          111          111    5124.6792    2770.3264    5690.6741    73188.486    1.9697218 
    1800        1.791    6989.0594   -453421.29    3369.7394      1367631          111          111          111    3879.4202     3380.242     2849.556     73175.05    1.9697218 
    1900        1.891    7004.8909   -451880.02    3484.9991      1367631          111          111          111    4777.7046    4935.9136    741.37902    73340.805    1.9697218 
    2000        1.991    7010.1414   -450564.23    3451.6868      1367631          111          111          111    3544.7522     4943.636    1866.6722    73395.777    1.9697218 
    2100        2.091     7009.599   -449412.25    2926.8767      1367631          111          111          111    2085.7474    3024.5147     3670.368    73390.098    1.9697218 
    2200        2.191    7008.0449   -448308.29    1916.8937      1367631          111          111          111    2345.3552    660.32163    2745.0044    73373.827    1.9697218 
    2300        2.291     6987.123   -446906.33    599.57876      1367631          111          111          111    1242.1986     1303.861   -747.32336    73154.776    1.9697218 
    2400        2.391    6964.3206   -445226.95    467.42067      1367631          111          111          111    1503.1793    650.77998   -751.69728    72916.036    1.9697218 
    2500        2.491    6981.0635      -443736    2043.5275      1367631          111          111          111    1790.5775    3775.5304    564.47468    73091.333    1.9697218 
    2600        2.591     7009.941   -442511.82    2513.8109      1367631          111          111          111    3845.1645    1351.2758    2344.9924     73393.68    1.9697218 
    2700        2.691    7013.1148   -441338.67    1614.0431      1367631          111          111          111    1550.5373    1189.4688    2102.1231    73426.909    1.9697218 
    2800        2.791    6987.9729   -440174.96   -592.48918      1367631          111          111          111   -1764.0896   -949.97999    936.60205    73163.674    1.9697218 
    2900        2.891    6949.1008   -438779.37   -566.66671      1367631          111          111          111   -106.76134   -1330.6644   -262.57438    72756.686    1.9697218 
    3000        2.991    7000.2617   -437858.25    1937.5327      1367631          111          111          111     2284.867    1996.3556    1531.3754    73292.338    1.9697218 
    3100        3.091    7034.4839   -436909.25    1144.0066      1367631          111          111          111     1665.721    647.74559    1118.5532    73650.641    1.9697218 
    3200        3.191    7019.4745   -435858.59    507.32278      1367631          111          111          111   -255.91019    2073.5124   -295.63388    73493.494    1.9697218 
    3300        3.291    7009.2647   -435166.85    925.11133      1367631          111          111          111    1577.8711    1497.4166   -299.95363    73386.599    1.9697218 
    3400        3.391    6974.4909   -434427.39     2052.718      1367631          111          111          111    2033.1698    2198.2091     1926.775    73022.518    1.9697218 
    3500        3.491    7011.6805   -434192.31    1295.0453      1367631          111          111          111    1833.4071    1464.7355    586.99325    73411.892    1.9697218 
    3600        3.591    7033.4396   -433562.71    1769.7998      1367631          111          111          111    3664.0667    485.39614    1159.9365    73639.708    1.9697218 
    3700        3.691    7019.9379    -432599.5    280.99331      1367631          111          111          111    1605.5693    591.52659   -1354.1159    73498.346    1.9697218 
    3800        3.791    6999.1851   -431959.68      2779.64      1367631          111          111          111    2777.1905    3406.0282    2155.7013    73281.065    1.9697218 
    3900        3.891    6969.7664   -431455.52    2837.8433      1367631          111          111          111    3618.8399     2479.333    2415.3571    72973.053    1.9697218 
    4000        3.991    6987.4794   -431061.92    1975.6262      1367631          111          111          111     3478.619    1549.3995    898.85999    73158.507    1.9697218 
    4100        4.091    7000.9123   -430097.19    4707.5591      1367631          111          111          111    2831.3576    5416.1883    5875.1314    73299.149    1.9697218 
    4200        4.191    7042.4048   -429443.79    2479.7237      1367631          111          111          111    2590.9828    2393.2032    2454.9852    73733.574    1.9697218 
    4300        4.291    7028.4099   -428714.23    4392.5755      1367631          111          111          111    4669.8122    4503.3172    4004.5971    73587.047    1.9697218 
    4400        4.391    7015.1958   -428468.41    3990.5528      1367631          111          111          111    4178.1042    3716.1403     4077.414    73448.696    1.9697218 
    4500        4.491    7002.3262   -428437.71    5030.8145      1367631          111          111          111    3907.5566    5552.2421    5632.6448    73313.952    1.9697218 
    4600        4.591    6976.6717   -428229.62    3719.3937      1367631          111          111          111    4323.3222    3762.9241    3071.9348    73045.352    1.9697218 
    4700        4.691    6986.7522   -428120.95    4427.6885      1367631          111          111          111    2778.5421     6105.666    4398.8574    73150.893    1.9697218 
    4800        4.791    6992.9645    -427612.6    4195.6231      1367631          111          111          111    4202.5181    3028.1524    5356.1988    73215.936    1.9697218 
    4900        4.891    7017.6774    -427378.6    5263.9948      1367631          111          111          111    5889.5524     6055.134    3847.2981    73474.679    1.9697218 
    5000        4.991    7011.9777   -427161.48    3625.2893      1367631          111          111          111    1945.4763    4303.5055     4626.886    73415.003    1.9697218 
    5100        5.091     6983.913    -426835.7    4952.4542      1367631          111          111          111    4044.0423    4842.8621    5970.4583    73121.168    1.9697218 
    5200        5.191    6990.2956   -426861.63    5020.5318      1367631          111          111          111    4720.7026     4871.973    5468.9198    73187.993    1.9697218 
    5300        5.291    6999.6765   -426724.43    4327.5868      1367631          111          111          111     4013.539    6280.3454    2688.8759     73286.21    1.9697218 
    5400        5.391     7024.915   -426733.93    3861.1405      1367631          111          111          111     3129.682    3557.0799    4896.6595    73550.456    1.9697218 
    5500        5.491    6976.2327   -426258.61    3144.9565      1367631          111          111          111    2414.0661    3595.3385    3425.4648    73040.755    1.9697218 
    5600        5.591    6994.0847   -426430.98    3453.3423      1367631          111          111          111    2207.1025     4601.346    3551.5785    73227.664    1.9697218 
    5700        5.691    6994.8642   -426481.07    5107.4788      1367631          111          111          111    4492.4916     3691.047    7138.8979    73235.826    1.9697218 
    5800        5.791    6996.1144   -426467.47    4587.5364      1367631          111          111          111    3986.8045    5830.6371    3945.1676    73248.915    1.9697218 
    5900        5.891    7006.1835    -426435.7    5473.3038      1367631          111          111          111    6897.6622    4393.6197    5128.6294    73354.338    1.9697218 
    6000        5.991    7000.8737   -426249.57    3229.5317      1367631          111          111          111    4268.8505    2097.0647    3322.6798    73298.745    1.9697218 
    6100        6.091    6995.5193    -426088.5    4886.8626      1367631          111          111          111    6559.9257    3069.5251    5031.1368    73242.685    1.9697218 
    6200        6.191    6999.9487   -426143.88    5479.6282      1367631          111          111          111    6266.3722    4737.3687    5435.1438    73289.061    1.9697218 
    6300        6.291    6990.9237   -426247.52    5188.9032      1367631          111          111          111    5225.2642    6498.3248    3843.1208    73194.569    1.9697218 
    6400        6.391    6988.5084   -426399.31    5717.8472      1367631          111          111          111    6374.4127     5697.965     5081.164    73169.281    1.9697218 
    6500        6.491    6999.4801   -426493.21    4724.0373      1367631          111          111          111    6891.9832    3015.9165    4264.2122    73284.155    1.9697218 
    6600        6.591    6997.8797   -426389.05    3634.8696      1367631          111          111          111    4667.3877    3820.1756    2417.0455    73267.398    1.9697218 
    6700        6.691    6964.1719   -426037.18    5105.6485      1367631          111          111          111    5229.6054    2756.0761    7331.2639    72914.479    1.9697218 
    6800        6.791    6965.8578   -425917.21     4324.627      1367631          111          111          111     4659.228    4686.1164    3628.5367    72932.131    1.9697218 
    6900        6.891    7004.6587   -425890.27    3415.9254      1367631          111          111          111    5530.2068    2271.9337    2445.6358    73338.374    1.9697218 
    7000        6.991    7047.2806   -426113.79    2666.4848      1367631          111          111          111    3115.1007     2028.499    2855.8548    73784.622    1.9697218 
    7100        7.091    7030.7221   -426261.82    6358.5559      1367631          111          111          111    6364.8993    3877.5222    8833.2461    73611.256    1.9697218 
    7200        7.191    6968.9112   -426178.85    5545.2725      1367631          111          111          111    6184.4472    5621.1506    4830.2196    72964.099    1.9697218 
    7300        7.291    6990.5283   -426657.39    5541.1003      1367631          111          111          111    5994.8426    4756.9493     5871.509    73190.429    1.9697218 
    7400        7.391    6996.1161   -426451.96    5648.7248      1367631          111          111          111    4810.1779    5975.1229    6160.8735    73248.933    1.9697218 
    7500        7.491    6994.9715   -426048.84    5593.3713      1367631          111          111          111    7571.7492    3398.9306     5809.434    73236.949    1.9697218 
    7600        7.591    7006.1228   -425917.89      4363.67      1367631          111          111          111    5857.2699      4545.29    2688.4501    73353.703    1.9697218 
    7700        7.691    7018.8264    -426098.2    4744.4505      1367631          111          111          111    3949.4226    4957.8927    5326.0361    73486.709    1.9697218 
    7800        7.791    7005.4575   -426065.06    4824.2296      1367631          111          111          111    8059.4167    3442.2968    2970.9755    73346.737    1.9697218 
    7900        7.891    7023.8656   -426203.88    4047.0354      1367631          111          111          111    3900.7158    4354.7131    3885.6774    73539.469    1.9697218 
    8000        7.991    6982.0027   -425847.21    1654.7427      1367631          111          111          111     286.4153    2876.9901    1800.8228    73101.167    1.9697218 
    8100        8.091    7001.2365   -426275.16    5204.7795      1367631          111          111          111    6065.0256    6263.1152    3286.1976    73302.543    1.9697218 
    8200        8.191    7010.4271   -426404.48    5082.4589      1367631          111          111          111    4006.7656    3484.1155    7756.4957    73398.768    1.9697218 
    8300        8.291    6977.9867   -425858.98    4954.3481      1367631          111          111          111     4622.743    4666.0299    5574.2713     73059.12    1.9697218 
    8400        8.391    7017.9693   -425875.71    4534.9034      1367631          111          111          111    4488.4476    4773.0048    4343.2578    73477.735    1.9697218 
    8500        8.491    7004.0008   -425513.17    3890.4578      1367631          111          111          111    5257.8856    3113.5551    3299.9326    73331.486    1.9697218 
    8600        8.591    7020.4851   -425711.36    5231.6542      1367631          111          111          111    4112.0976     5443.925      6138.94    73504.076    1.9697218 
    8700        8.691    7008.5149   -425921.94    6083.8551      1367631          111          111          111    7357.6386    4966.2922    5927.6344    73378.748    1.9697218 
    8800        8.791     6973.242   -425839.33    3894.3269      1367631          111          111          111     2553.298    4732.1242    4397.5584    73009.442    1.9697218 
    8900        8.891    6995.8849   -426013.69    6925.4818      1367631          111          111          111     6699.756    6045.4747    8031.2147    73246.512    1.9697218 
    9000        8.991    7032.1681   -425973.96    4212.0648      1367631          111          111          111    4061.7648    2864.9738    5709.4558    73626.395    1.9697218 
    9100        9.091    7032.9644   -425846.97    4657.6925      1367631          111          111          111    3539.9319    2727.7161    7705.4295    73634.733    1.9697218 
    9200        9.191    6995.2844   -425599.95    6523.8045      1367631          111          111          111     5827.681    7181.5935     6562.139    73240.225    1.9697218 
    9300        9.291    6986.8564   -425493.56     5026.823      1367631          111          111          111    6979.6461    4364.7977     3736.025    73151.985    1.9697218 
    9400        9.391     7004.396   -425727.53     3206.938      1367631          111          111          111     4312.633    3073.1584    2235.0227    73335.623    1.9697218 
    9500        9.491    7009.5304    -425690.2    5264.3386      1367631          111          111          111    5790.0164    2604.5313    7398.4682     73389.38    1.9697218 
    9600        9.591    7038.2148   -426007.13    5825.6396      1367631          111          111          111    5574.3218    5401.4485    6501.1485    73689.704    1.9697218 
    9700        9.691    7007.2928   -426048.14    3990.2459      1367631          111          111          111    5885.7098    3948.2785    2136.7493    73365.953    1.9697218 
    9800        9.791    7004.9482   -426218.06    6037.2471      1367631          111          111          111    5227.0799    6300.3804    6584.2809    73341.405    1.9697218 
    9900        9.891    6967.5994   -425800.27    4440.6863      1367631          111          111          111    5344.0077    3652.4455    4325.6057    72950.365    1.9697218 
   10000        9.991    7002.0186   -425879.24    3539.7519      1367631          111          111          111    4420.5424    3017.7535    3180.9598    73310.732    1.9697218 
   10100       10.091    7022.5738    -425766.8    3989.9456      1367631          111          111          111    3260.9592    4428.5982    4280.2793    73525.944    1.9697218 
   10200       10.191    7009.5839   -425577.68    6207.5432      1367631          111          111          111    6218.4737     4488.239     7915.917     73389.94    1.9697218 
   10300       10.291    6996.4016   -425596.48    4575.6867      1367631          111          111          111    4534.1001    4123.8637    5069.0964    73251.922    1.9697218 
   10400       10.391    7008.0938   -425974.07    3751.4666      1367631          111          111          111    3853.9064    4702.0435      2698.45    73374.339    1.9697218 
   10500       10.491    6986.1678   -426076.37    4227.8049      1367631          111          111          111    5196.0555    2661.8705    4825.4886    73144.775    1.9697218 
   10600       10.591    6997.4674   -426278.15     5013.092      1367631          111          111          111      6777.83    3722.7677    4538.6783    73263.081    1.9697218 
   10700       10.691    7011.6318   -426156.18    5718.4291      1367631          111          111          111    6631.3212    4131.9019    6392.0642    73411.382    1.9697218 
   10800       10.791    7010.5973   -425775.17    4839.1742      1367631          111          111          111    2870.5728    5286.3661    6360.5838    73400.551    1.9697218 
   10900       10.891    7041.5236   -425714.01    6375.8576      1367631          111          111          111    5658.5182     6650.286    6818.7685    73724.347    1.9697218 
   11000       10.991    6983.9805   -425185.12    4539.7139      1367631          111          111          111    5305.1539    3592.2896    4721.6984    73121.874    1.9697218 
   11100       11.091    7012.4726   -425749.42    5338.8565      1367631          111          111          111    4856.3353    5511.6235    5648.6105    73420.184    1.9697218 
   11200       11.191    6978.7905   -425620.37    5459.4202      1367631          111          111          111      7283.17    5067.1579    4027.9326    73067.535    1.9697218 
   11300       11.291    6991.9805      -425849    3601.6743      1367631          111          111          111    3025.6916    4769.2798    3010.0514    73205.634    1.9697218 
   11400       11.391    6988.3108   -425860.13    2131.0441      1367631          111          111          111    3252.7771    2235.8656    904.48951    73167.212    1.9697218 
   11500       11.491    7001.9674   -425811.46    4908.4895      1367631          111          111          111    3575.6633    5000.8641    6148.9412    73310.196    1.9697218 
   11600       11.591    7028.8941   -425981.79    1006.9518      1367631          111          111          111    823.92408    884.30018    1312.6313    73592.117    1.9697218 
   11700       11.691    6997.2987    -425819.8    5788.1429      1367631          111          111          111    6546.0914    5992.1607    4826.1765    73261.315    1.9697218 
   11800       11.791    7003.3913   -425994.59    3771.4827      1367631          111          111          111    3893.8208    3185.8208    4234.8066    73325.104    1.9697218 
   11900       11.891    6964.7669    -425711.4    6554.6611      1367631          111          111          111     6343.951    6022.0353     7297.997    72920.709    1.9697218 
   12000       11.991     7016.678   -425925.21    4774.7856      1367631          111          111          111    6032.3564    3917.7191    4374.2813    73464.215    1.9697218 
   12100       12.091    7015.0981   -425453.55    6403.5953      1367631          111          111          111    6044.0652    6904.4596     6262.261    73447.674    1.9697218 
   12200       12.191    7025.0381   -425431.24    5059.5685      1367631          111          111          111    7110.1316    3594.3244    4474.2494    73551.745    1.9697218 
   12300       12.291    7000.3283   -425528.15    4928.7857      1367631          111          111          111    5879.4105    5530.4768    3376.4696    73293.035    1.9697218 
   12400       12.391    6986.2203    -425653.3    5086.0384      1367631          111          111          111    4640.9676    4000.7735    6616.3741    73145.325    1.9697218 
   12500       12.491    7007.6735   -425933.76    3707.4854      1367631          111          111          111    3970.8212    4351.6489    2799.9861    73369.939    1.9697218 
   12600       12.591    6992.3097   -425755.53    4477.8765      1367631          111          111          111    6043.0427    2094.5047     5296.082    73209.081    1.9697218 
   12700       12.691    7012.1102    -425943.4    5741.5801      1367631          111          111          111       5379.2    4371.2434     7474.297     73416.39    1.9697218 
   12800       12.791    7020.8463   -426022.57    4078.3866      1367631          111          111          111    5491.3647    2627.3781    4116.4171    73507.857    1.9697218 
   12900       12.891    7022.8057   -426104.86    4782.0058      1367631          111          111          111    5335.8423    4500.2005    4509.9745    73528.372    1.9697218 
   13000       12.991    7009.4848   -426148.79    8571.2076      1367631          111          111          111    9184.7828    8023.2723    8505.5677    73388.903    1.9697218 
   13100       13.091    6978.5101   -425809.31    5246.7441      1367631          111          111          111    6374.6944    3171.8731    6193.6649      73064.6    1.9697218 
   13200       13.191    7006.8045   -425982.71    3468.5493      1367631          111          111          111    575.08819    5688.1771    4142.3827     73360.84    1.9697218 
   13300       13.291    6993.9186   -425674.02    4813.1498      1367631          111          111          111    2045.2656     7535.792    4858.3917    73225.926    1.9697218 
   13400       13.391     7003.933   -425491.62    4638.3692      1367631          111          111          111    4878.7929    5111.1463    3925.1685    73330.776    1.9697218 
   13500       13.491    7018.0836   -425553.21    5814.3159      1367631          111          111          111    4761.8897    6474.9693    6206.0887    73478.932    1.9697218 
   13600       13.591      7010.12   -425496.41     7058.652      1367631          111          111          111    7219.6612    6555.8801    7400.4147    73395.554    1.9697218 
   13700       13.691    7025.0438   -425676.06    4706.8687      1367631          111          111          111    2394.6236    7436.1926      4289.79    73551.804    1.9697218 
   13800       13.791    7012.1784   -425601.79      5971.55      1367631          111          111          111    3298.6446    7087.8481    7528.1572    73417.104    1.9697218 
   13900       13.891    6982.9681   -425352.22     3710.094      1367631          111          111          111    2775.4685    5701.4485    2653.3648    73111.274    1.9697218 
   14000       13.991    7007.6891    -425492.3    4434.5315      1367631          111          111          111    4057.5733    5436.7909    3809.2302    73370.102    1.9697218 
   14100       14.091    7001.2484   -425256.76    5119.9973      1367631          111          111          111    5306.4829    5380.9864    4672.5225    73302.668    1.9697218 
   14200       14.191    6986.8577   -425065.57    3703.8729      1367631          111          111          111    3666.2767    6117.9174    1327.4246    73151.999    1.9697218 
   14300       14.291    7007.9444    -425402.8    6038.9644      1367631          111          111          111    6056.0453    6608.9174    5451.9304    73372.775    1.9697218 
   14400       14.391    7004.8744      -425610     5503.997      1367631          111          111          111    5181.3015    6042.8458    5287.8438    73340.632    1.9697218 
   14500       14.491    6996.9643   -425611.71    5208.2282      1367631          111          111          111     4765.315    5541.9479    5317.4217    73257.814    1.9697218 
   14600       14.591    6978.4708    -425347.3    3973.0514      1367631          111          111          111    3905.0346    4329.6041    3684.5154    73064.188    1.9697218 
   14700       14.691    7008.4548    -425308.3    5940.1724      1367631          111          111          111    4520.5358     6397.751    6902.2304    73378.119    1.9697218 
   14800       14.791    7005.5875   -425133.65    6146.5446      1367631          111          111          111    5273.5087    7118.1114    6048.0138    73348.098    1.9697218 
   14900       14.891    6998.9065   -425251.76    6587.4922      1367631          111          111          111    7223.8886    5253.6729    7284.9152    73278.149    1.9697218 
   15000       14.991    6997.8993   -425433.28    4817.4457      1367631          111          111          111    3415.2391     5813.044    5224.0538    73267.603    1.9697218 
   15100       15.091    6985.4716   -425298.59    3531.2516      1367631          111          111          111    1445.1241    4947.4301    4201.2006    73137.486    1.9697218 
   15200       15.191    7030.9883   -425596.79    6145.1666      1367631          111          111          111    6993.3392    5645.4866    5796.6739    73614.043    1.9697218 
   15300       15.291    7001.6298   -425334.58    4504.4075      1367631          111          111          111     3608.447    4547.0259    5357.7497    73306.661    1.9697218 
   15400       15.391    6989.4308   -425069.39    7265.0175      1367631          111          111          111    5806.3274    8159.6875    7829.0378    73178.939    1.9697218 
   15500       15.491    7028.3243    -425304.2    3889.4483      1367631          111          111          111    5939.1926    4525.6555    1203.4967    73586.151    1.9697218 
   15600       15.591    7022.2316   -425373.18    4987.5364      1367631          111          111          111    5525.4432    5688.3109    3748.8552    73522.361    1.9697218 
   15700       15.691    7002.7015   -425562.81    6234.6341      1367631          111          111          111    5924.7554     5671.005    7108.1419    73317.882    1.9697218 
   15800       15.791    6988.6307   -425674.19    5245.7702      1367631          111          111          111    6255.6603    4817.6373    4664.0129    73170.562    1.9697218 
   15900       15.891    6996.4634   -425718.71    6010.9571      1367631          111          111          111    5013.0729    7063.6522    5956.1462    73252.569    1.9697218 
   16000       15.991    6991.3576   -425350.05    5432.7842      1367631          111          111          111    4266.1152    4935.4861    7096.7514    73199.112    1.9697218 
   16100       16.091    7019.6715   -425291.24     5604.004      1367631          111          111          111    5555.0047    5014.2321    6242.7752    73495.557    1.9697218 
   16200       16.191    7013.1347    -425239.7    3675.6098      1367631          111          111          111    3631.2022    3876.7221    3518.9051    73427.117    1.9697218 
   16300       16.291    6999.2053   -425453.62    3019.4518      1367631          111          111          111     4260.511    1978.5756    2819.2689    73281.277    1.9697218 
   16400       16.391    6983.0271   -425533.21    6205.4425      1367631          111          111          111    7652.3971    6449.5482    4514.3822    73111.892    1.9697218 
   16500       16.491    6983.1402   -425442.58    6556.2433      1367631          111          111          111    4278.3145     7082.914    8307.5013    73113.077    1.9697218 
   16600       16.591    7017.4145   -425477.06    7148.7819      1367631          111          111          111    6321.4587    5556.6634    9568.2237    73471.926    1.9697218 
   16700       16.691    7021.5829    -425507.1    4498.3544      1367631          111          111          111    5984.1576    2708.9638    4801.9419     73515.57    1.9697218 
   16800       16.791    7003.8397   -425599.17    2741.6739      1367631          111          111          111     3201.382     1821.738    3201.9017    73329.799    1.9697218 
   16900       16.891    6981.3817    -425537.1      4252.02      1367631          111          111          111    4489.9727    4374.5084    3891.5789    73094.665    1.9697218 
   17000       16.991    6987.7815   -425554.09    5599.7476      1367631          111          111          111    5816.3737    4827.3365    6155.5327    73161.671    1.9697218 
   17100       17.091     7005.258   -425415.61    4592.9745      1367631          111          111          111    4547.1277     5324.182    3907.6138    73344.649    1.9697218 
   17200       17.191    6994.2572   -425238.48    5112.2457      1367631          111          111          111    4976.8639    5624.5976    4735.2755     73229.47    1.9697218 
   17300       17.291    7020.4342   -425440.65    4630.7302      1367631          111          111          111    5819.8325    4391.6206    3680.7376    73503.543    1.9697218 
   17400       17.391    6998.1321   -425161.55    5075.2077      1367631          111          111          111    5354.0631    3558.5602    6312.9998    73270.041    1.9697218 
   17500       17.491    6997.3603   -425072.34    6674.8237      1367631          111          111          111    5684.4277    8220.2106    6119.8329     73261.96    1.9697218 
   17600       17.591    7016.4161      -425197    2966.8433      1367631          111          111          111    2569.2444    4138.0576    2193.2281    73461.473    1.9697218 
   17700       17.691     6986.829   -424953.54    4349.8341      1367631          111          111          111    4967.5337    4407.7387    3674.2299    73151.698    1.9697218 
   17800       17.791    7021.6175   -425446.33    7368.2856      1367631          111          111          111     6389.172    9568.3955    6147.2892    73515.931    1.9697218 
   17900       17.891    6989.2471   -425477.18    4986.2934      1367631          111          111          111    5134.8648     4291.826    5532.1893    73177.015    1.9697218 
   18000       17.991     6994.471   -425634.38      6096.53      1367631          111          111          111    7706.2802    2956.7618     7626.548    73231.709    1.9697218 
   18100       18.091    6999.9553   -425645.48    2028.7543      1367631          111          111          111    659.27577    3218.0825    2208.9046     73289.13    1.9697218 
   18200       18.191    6989.1538   -425462.84     4894.256      1367631          111          111          111     3783.801    5377.1173    5521.8497    73176.038    1.9697218 
   18300       18.291    7014.5066   -425583.84    6714.7346      1367631          111          111          111    6494.9066    7294.2174    6355.0798    73441.481    1.9697218 
   18400       18.391    7018.4825   -425446.84    4636.6714      1367631          111          111          111    5059.4286    5346.2179    3504.3677    73483.108    1.9697218 
   18500       18.491    7040.8146   -425666.53    5195.5257      1367631          111          111          111    3757.0988     6408.312    5421.1662    73716.924    1.9697218 
   18600       18.591    7014.1661   -425613.15     5085.229      1367631          111          111          111    6613.3136    5254.2106    3388.1627    73437.916    1.9697218 
   18700       18.691    6988.0974   -425535.36    3670.2401      1367631          111          111          111    3075.9288    2181.0164    5753.7752    73164.978    1.9697218 
   18800       18.791    7000.2245   -425742.24    4461.9282      1367631          111          111          111    3362.1646    4787.6444    5235.9755    73291.948    1.9697218 
   18900       18.891    7018.4859   -426002.82    6410.9492      1367631          111          111          111    7311.8796     6814.599    5106.3689    73483.143    1.9697218 
   19000       18.991    7015.1087   -425961.97    5772.0359      1367631          111          111          111    5901.9736    5482.8188    5931.3153    73447.784    1.9697218 
   19100       19.091    6988.3378   -425673.82    4638.0863      1367631          111          111          111    5695.4102    6054.7905    2164.0583    73167.494    1.9697218 
   19200       19.191    7013.4565   -425703.47     6139.892      1367631          111          111          111     5339.473    5543.6605    7536.5425    73430.487    1.9697218 
   19300       19.291    7007.3871   -425479.09    5467.3907      1367631          111          111          111    6532.4141    4466.1928    5403.5653     73366.94    1.9697218 
   19400       19.391    7014.6353   -425500.88    5156.2154      1367631          111          111          111    4297.2252    6217.7471    4953.6738    73442.828    1.9697218 
   19500       19.491    6979.5975   -425081.98    3179.9975      1367631          111          111          111    2492.2998    4057.4089    2990.2837    73075.985    1.9697218 
   19600       19.591    7023.6716   -425557.32     6106.749      1367631          111          111          111     5552.561    5363.6822    7404.0039    73537.438    1.9697218 
   19700       19.691     6999.189   -425415.68    5566.2783      1367631          111          111          111    6805.4313     5830.792    4062.6116    73281.107    1.9697218 
   19800       19.791    6986.9091    -425300.3     4144.365      1367631          111          111          111    4341.3022    3727.4351    4364.3578    73152.537    1.9697218 
   19900       19.891    7010.0678   -425678.81    5696.2017      1367631          111          111          111    5307.9414    4329.6889    7450.9747    73395.007    1.9697218 
   20000       19.991    7009.3474   -425767.58    2969.4946      1367631          111          111          111    1949.6695    5108.4501    1850.3642    73387.465    1.9697218 
   20100       20.091     7014.122   -425777.92    4656.8479      1367631          111          111          111    3977.2284    5974.4912     4018.824    73437.454    1.9697218 
   20200       20.191     6992.603   -425645.39    6270.0115      1367631          111          111          111    5997.6209    6752.5207     6059.893    73212.151    1.9697218 
   20300       20.291    6980.5577   -425604.93    4912.6088      1367631          111          111          111     5889.102    4222.0744      4626.65    73086.037    1.9697218 
   20400       20.391    6979.6589   -425586.32    4276.8419      1367631          111          111          111    6570.1234    2853.3728    3407.0295    73076.627    1.9697218 
   20500       20.491    7007.6224   -425628.26    5618.2821      1367631          111          111          111    5919.7573    4612.3094    6322.7797    73369.404    1.9697218 
   20600       20.591    7014.2784   -425572.34    6318.7236      1367631          111          111          111    6383.7772     5356.494    7215.8995    73439.092    1.9697218 
   20700       20.691    6995.4498   -425431.79    2453.7847      1367631          111          111          111    70.487206     5023.595    2267.2718    73241.957    1.9697218 
   20800       20.791    7010.2607    -425719.9    5720.9223      1367631          111          111          111    5066.8716    5157.5375    6938.3577    73397.026    1.9697218 
   20900       20.891    6973.8342   -425376.93    3503.9618      1367631          111          111          111      4514.99    1501.9895    4494.9058    73015.643    1.9697218 
   21000       20.991    7012.8571   -425882.43    3002.3878      1367631          111          111          111    2217.2126    2727.2467    4062.7042    73424.211    1.9697218 
   21100       21.091    7004.5577   -425812.39    4835.9487      1367631          111          111          111    4661.1008     6034.021    3812.7242    73337.316    1.9697218 
   21200       21.191    6996.1362   -425676.01    2316.7028      1367631          111          111          111    3669.0139    1386.7522    1894.3423    73249.143    1.9697218 
   21300       21.291    7019.7502   -425856.07    3929.7295      1367631          111          111          111    4939.1248    4471.8461    2378.2176    73496.381    1.9697218 
   21400       21.391    7000.0678   -425687.78    6865.7576      1367631          111          111          111    6717.7848    8016.1753    5863.3127    73290.307    1.9697218 
   21500       21.491    7014.8311   -425920.54    4758.2773      1367631          111          111          111    3321.7676    4640.4298    6312.6345    73444.878    1.9697218 
   21600       21.591    7025.6213    -426030.4    6591.5206      1367631          111          111          111    5299.3026    7208.9298    7266.3294    73557.851    1.9697218 
   21700       21.691    7013.0974   -425936.94    6504.1819      1367631          111          111          111    6176.4732     6894.851    6441.2217    73426.726    1.9697218 
   21800       21.791     7009.849   -425859.35    4322.2166      1367631          111          111          111    2771.9369    5222.1045    4972.6084    73392.716    1.9697218 
   21900       21.891    6977.7826   -425543.03    3077.0326      1367631          111          111          111     1394.683     3697.816    4138.5989    73056.983    1.9697218 
   22000       21.991    7032.1672   -425920.59    4691.6146      1367631          111          111          111     5396.997    5722.1896    2955.6571    73626.387    1.9697218 
   22100       22.091    7008.9193   -425601.52    1443.6115      1367631          111          111          111   -108.57254    2686.8368    1752.5701    73382.982    1.9697218 
   22200       22.191    7006.6032    -425573.9    4061.4361      1367631          111          111          111    3720.9641     4191.576    4271.7682    73358.732    1.9697218 
   22300       22.291    7021.0712   -425636.01    5834.3702      1367631          111          111          111    2964.4749    6975.4398    7563.1961    73510.211    1.9697218 
   22400       22.391     7035.611    -425792.8    4072.0888      1367631          111          111          111    3244.5148    3342.5994    5629.1523    73662.442    1.9697218 
   22500       22.491    7035.8276   -425920.75    7231.3113      1367631          111          111          111    9896.8299    6169.6872    5627.4169     73664.71    1.9697218 
   22600       22.591    7022.3195   -425935.32    3394.5687      1367631          111          111          111    3353.9378    5378.6966    1451.0717    73523.281    1.9697218 
   22700       22.691     7002.258   -425700.84    5904.4322      1367631          111          111          111    4238.3009    6184.4768    7290.5188    73313.238    1.9697218 
   22800       22.791    7002.0544   -425691.45    6673.1426      1367631          111          111          111    6140.1783    6520.5698    7358.6797    73311.107    1.9697218 
   22900       22.891    7027.1999   -426010.43    5025.7876      1367631          111          111          111    5566.9352    4574.0954    4936.3323    73574.379    1.9697218 
   23000       22.991     7015.953   -425778.11     3547.881      1367631          111          111          111    4853.5617    4178.9609    1611.1205    73456.625    1.9697218 
   23100       23.091    7033.5028   -425783.51    5737.9781      1367631          111          111          111    6661.0295    5162.4916    5390.4132     73640.37    1.9697218 
   23200       23.191    7042.4975   -425663.55    3279.3708      1367631          111          111          111    3991.1263    2603.5957    3243.3904    73734.544    1.9697218 
   23300       23.291    7011.8109   -425300.79    4768.8231      1367631          111          111          111     5929.749    5576.2174    2800.5028    73413.257    1.9697218 
   23400       23.391    6998.3634   -425060.72    3864.8804      1367631          111          111          111    4439.5861    3361.6059    3793.4492    73272.463    1.9697218 
   23500       23.491    7023.5333   -425213.24    7122.6397      1367631          111          111          111    8378.8761    6909.1008    6079.9424     73535.99    1.9697218 
   23600       23.591    7047.4656   -425373.65    4943.3068      1367631          111          111          111    6505.4551    4694.8461    3629.6193    73786.559    1.9697218 
   23700       23.691    7036.6117   -425168.18    5704.2363      1367631          111          111          111    4361.5031    6375.9773    6375.2285     73672.92    1.9697218 
   23800       23.791    7002.5048   -424732.78     4615.824      1367631          111          111          111    4953.1841    2964.3896    5929.8982    73315.823    1.9697218 
   23900       23.891    7025.1939    -424943.2    4165.8373      1367631          111          111          111    4597.6052    6027.3411    1872.5656    73553.376    1.9697218 
   24000       23.991    7057.4917    -425287.9    7947.5537      1367631          111          111          111    7556.8121    8716.8524    7568.9967    73891.533    1.9697218 
   24100       24.091    7056.4082   -425278.44    7019.0378      1367631          111          111          111    6124.3985    7319.5886    7613.1262    73880.188    1.9697218 
   24200       24.191     7029.258   -425011.43    5513.2583      1367631          111          111          111     6796.338    5077.7149    4665.7222    73595.927    1.9697218 
   24300       24.291    7024.1476   -424790.38    5045.1803      1367631          111          111          111    5189.7324    4161.1284    5784.6799    73542.422    1.9697218 
   24400       24.391    7035.5354    -424837.4    3478.3615      1367631          111          111          111     2623.876    4456.9237    3354.2849    73661.651    1.9697218 
   24500       24.491    7041.6071   -424878.45    2766.9409      1367631          111          111          111     3220.305     3218.952    1861.5658    73725.222    1.9697218 
   24600       24.591    7054.2812   -424987.94    5452.8722      1367631          111          111          111    6811.9726    5306.6236    4240.0205    73857.918    1.9697218 
   24700       24.691    7014.0553   -424624.61    5916.8218      1367631          111          111          111    6578.3625    5678.2959     5493.807    73436.755    1.9697218 
   24800       24.791    7025.0055   -424648.46    4703.3047      1367631          111          111          111    3096.0959    5993.5853    5020.2331    73551.403    1.9697218 
   24900       24.891    7071.4455   -425146.06    4272.6926      1367631          111          111          111    4638.1227    4266.5887    3913.3666    74037.627    1.9697218 
   25000       24.991    7044.7238   -424978.03    3645.8635      1367631          111          111          111    4358.4138    2518.3665      4060.81    73757.854    1.9697218 
   25100       25.091    7034.9617   -424963.25    5837.8939      1367631          111          111          111    5942.2513    5470.6094     6100.821    73655.645    1.9697218 
   25200       25.191     7006.939    -424721.2    5377.3379      1367631          111          111          111    8247.1596      5060.94    2823.9141    73362.248    1.9697218 
   25300       25.291     7053.216    -425261.7    6822.9886      1367631          111          111          111    7469.2447    6204.7159    6795.0053    73846.766    1.9697218 
   25400       25.391    7026.8828   -424947.78    3927.7017      1367631          111          111          111    5988.6195    3151.0661    2643.4195    73571.059    1.9697218 
   25500       25.491    7033.8499   -424955.33    4456.8181      1367631          111          111          111    5430.0905    4622.7722    3317.5918    73644.004    1.9697218 
   25600       25.591    7035.9912   -425029.46    5094.2477      1367631          111          111          111    3560.1761    6941.4552    4781.1118    73666.424    1.9697218 
   25700       25.691    7007.0956   -424730.46    5660.6409      1367631          111          111          111    6406.5843    5401.6419    5173.6966    73363.888    1.9697218 
   25800       25.791    7038.9189   -424988.14    3373.2367      1367631          111          111          111    3286.7063    1953.2582    4879.7458    73697.076    1.9697218 
   25900       25.891    7024.9035      -424784    4823.7152      1367631          111          111          111    5525.3987    5680.2591    3265.4879    73550.336    1.9697218 
   26000       25.991    7013.6831   -424614.23    3405.0931      1367631          111          111          111    4078.7353    1736.8377    4399.7063    73432.859    1.9697218 
   26100       26.091    7050.8108   -424984.01    7174.0392      1367631          111          111          111    5959.9858    7479.6572    8082.4745    73821.584    1.9697218 
   26200       26.191    7041.0003   -424953.57    3693.0055      1367631          111          111          111    3706.6718    4925.9919    2446.3528    73718.868    1.9697218 
   26300       26.291    7011.8105   -424704.36    5634.5476      1367631          111          111          111    6958.0494    3678.4505    6267.1429    73413.252    1.9697218 
   26400       26.391     7029.513   -424825.95    4301.4705      1367631          111          111          111    4823.3844    4522.5979    3558.4294    73598.597    1.9697218 
   26500       26.491      7034.51   -424954.08    5512.2331      1367631          111          111          111    6008.4653    5052.3875    5475.8465    73650.915    1.9697218 
   26600       26.591    7039.6402   -424986.67     4784.319      1367631          111          111          111    5262.1742    5267.8986    3822.8843    73704.628    1.9697218 
   26700       26.691     7059.294    -425211.7    3992.6214      1367631          111          111          111    1709.1269    3353.6567    6915.0807    73910.403    1.9697218 
   26800       26.791    7022.9455   -424874.75    5325.0061      1367631          111          111          111    5821.1019    6809.9711    3343.9452    73529.836    1.9697218 
   26900       26.891    7002.8547   -424605.25    5223.1518      1367631          111          111          111    2270.8187    7215.3965    6183.2402    73319.486    1.9697218 
   27000       26.991      7011.29   -424638.23    3825.9231      1367631          111          111          111    3120.2073    4897.1256    3460.4365    73407.803    1.9697218 
   27100       27.091    7040.7524   -424908.83    5706.9513      1367631          111          111          111    4612.4484    6219.0019    6289.4037    73716.273    1.9697218 
   27200       27.191    7036.1064   -424919.36    5216.7321      1367631          111          111          111    3859.3398    6650.7469    5140.1096    73667.629    1.9697218 
   27300       27.291    7026.4711   -424875.26    4387.1577      1367631          111          111          111    5243.4671     3498.613     4419.393    73566.749    1.9697218 
   27400       27.391    7001.6127   -424639.39    3783.7303      1367631          111          111          111    4116.6188    1780.2344    5454.3376    73306.482    1.9697218 
   27500       27.491    7038.7502   -425026.29    5268.0675      1367631          111          111          111    8104.3732     4655.221    3044.6083    73695.309    1.9697218 
   27600       27.591    7016.0053   -424766.41    6491.9408      1367631          111          111          111    7399.3221    7843.2683    4233.2319    73457.172    1.9697218 
   27700       27.691    7055.6301   -425183.93    6113.6035      1367631          111          111          111    6693.7229    6324.5171    5322.5704    73872.041    1.9697218 
   27800       27.791    7031.5912   -424944.92    4319.1319      1367631          111          111          111    4831.9275    3451.8158    4673.6525    73620.355    1.9697218 
   27900       27.891    7016.3736   -424796.82    4359.2894      1367631          111          111          111    3566.0905    4244.5487     5267.229    73461.028    1.9697218 
   28000       27.991    7047.3681    -425088.8    5060.6664      1367631          111          111          111    6720.8772    5842.5133    2618.6086    73785.538    1.9697218 
   28100       28.091     6999.653   -424589.76    6066.4316      1367631          111          111          111    4859.9223    7035.7637    6303.6087    73285.964    1.9697218 
   28200       28.191    7006.4501   -424531.86    6327.2891      1367631          111          111          111    5037.2603    6425.0157    7519.5913     73357.13    1.9697218 
   28300       28.291    7016.0963   -424527.97    6958.6312      1367631          111          111          111    7640.1748     7154.753    6080.9658    73458.125    1.9697218 
   28400       28.391     7061.389   -424967.43    4613.9314      1367631          111          111          111     4358.371    4865.8533    4617.5699    73932.336    1.9697218 
   28500       28.491    7028.8936   -424608.47    4811.6747      1367631          111          111          111    3533.8972    3675.6291    7225.4977    73592.112    1.9697218 
   28600       28.591     7052.592   -424912.14     5508.943      1367631          111          111          111     4271.623    5426.7173    6828.4888    73840.233    1.9697218 
   28700       28.691    7040.3564   -424820.65    5576.1006      1367631          111          111          111    6521.6963    4448.6029    5758.0026    73712.126    1.9697218 
   28800       28.791    7011.6257    -424548.5    5186.6309      1367631          111          111          111    4284.3999    6127.4016    5148.0912    73411.318    1.9697218 
   28900       28.891    7057.7309    -424982.5    6422.6137      1367631          111          111          111    8325.3629    6500.4924    4441.9859    73894.037    1.9697218 
   29000       28.991    7073.2123   -425204.91    6150.8679      1367631          111          111          111    5955.8148    7589.6082    4907.1808    74056.126    1.9697218 
   29100       29.091     7051.654   -425064.41     6876.839      1367631          111          111          111    7015.8663    7713.9444    5900.7064    73830.412    1.9697218 
   29200       29.191    7034.2042   -424887.67    4368.0625      1367631          111          111          111    3945.7881    3557.5105    5600.8888    73647.714    1.9697218 
   29300       29.291    7008.9953   -424518.39    4729.4912      1367631          111          111          111    4881.9671    3975.6691    5330.8374    73383.778    1.9697218 
   29400       29.391    7020.6801   -424464.12    5684.5526      1367631          111          111          111    6380.2345    5708.7297    4964.6937    73506.117    1.9697218 
   29500       29.491    7054.1434    -424719.6    6548.4155      1367631          111          111          111    8249.5653    3781.6299    7614.0513    73856.476    1.9697218 
   29600       29.591    7054.2366   -424706.38    6672.4493      1367631          111          111          111    7216.1752    6511.3543    6289.8184    73857.452    1.9697218 
   29700       29.691    7039.4406   -424539.05    4242.2218      1367631          111          111          111     5199.756    4987.5806    2539.3288    73702.538    1.9697218 
   29800       29.791    7016.4315   -424246.95    6470.1098      1367631          111          111          111      7384.77    5389.0709    6636.4886    73461.634    1.9697218 
   29900       29.891    7043.6522    -424538.7    4252.1424      1367631          111          111          111    4219.4884    4681.2531    3855.6856    73746.633    1.9697218 
   30000       29.991    7036.7446   -424470.35    3764.3909      1367631          111          111          111    3527.2074    3484.0016    4281.9636    73674.312    1.9697218 
   30100       30.091    7056.2081   -424720.12    6118.9604      1367631          111          111          111    4278.8384    7390.2725    6687.7704    73878.093    1.9697218 
   30200       30.191    7010.8577   -424304.75    3523.5053      1367631          111          111          111    4929.7964    1801.9303    3838.7891    73403.277    1.9697218 
   30300       30.291    7038.8205   -424638.73    5639.6316      1367631          111          111          111    4887.1784    6083.8721    5947.8443    73696.046    1.9697218 
   30400       30.391    7048.7217   -424879.63    4399.6779      1367631          111          111          111    4863.0124     3600.194    4735.8272    73799.711    1.9697218 
   30500       30.491    7038.7568   -424895.33    5654.3929      1367631          111          111          111    6838.0979    4446.3003    5678.7806    73695.379    1.9697218 
   30600       30.591    7025.1496   -424820.28    5912.0643      1367631          111          111          111    4335.3097     7421.356    5979.5272    73552.913    1.9697218 
   30700       30.691    7056.4436   -425201.69    5832.6827      1367631          111          111          111    5807.8053    5038.2305    6652.0124    73880.559    1.9697218 
   30800       30.791    7023.9067   -424938.14     4886.975      1367631          111          111          111    4487.5304    6367.0128    3806.3819    73539.899    1.9697218 
   30900       30.891    7024.5611    -424901.9    5224.2096      1367631          111          111          111    5327.3259    5070.1216    5275.1813    73546.751    1.9697218 
   31000       30.991    7059.9198   -425283.88    6569.5737      1367631          111          111          111     7231.948    7980.5203    4496.2528    73916.954    1.9697218 
   31100       31.091    7030.4975   -425003.45     5665.019      1367631          111          111          111    6205.2622    5533.5637    5256.2312    73608.905    1.9697218 
   31200       31.191    7032.7334   -425004.97    5603.3145      1367631          111          111          111    6158.8343    6206.9562    4444.1531    73632.314    1.9697218 
   31300       31.291    7032.1559   -424981.01    7437.1686      1367631          111          111          111    7358.1658    7480.3831    7472.9567    73626.268    1.9697218 
   31400       31.391    7038.0529   -425019.39    6174.8651      1367631          111          111          111    8640.5299    6025.2993     3858.766    73688.009    1.9697218 
   31500       31.491    7044.4012   -425010.98    5422.0199      1367631          111          111          111    5059.1857    6068.8012    5138.0726    73754.476    1.9697218 
   31600       31.591    7032.1522   -424871.74    5860.6034      1367631          111          111          111    4569.5608    5955.7506    7056.4987    73626.229    1.9697218 
   31700       31.691    7036.1576    -424927.6    5722.2877      1367631          111          111          111     3389.144    6128.7635    7648.9556    73668.166    1.9697218 
   31800       31.791    7052.2578   -425061.95    8004.4322      1367631          111          111          111    6930.1747    7430.8511    9652.2709    73836.734    1.9697218 
   31900       31.891    7040.8276   -424969.08    5511.0893      1367631          111          111          111    5300.2323    5036.6014    6196.4342     73717.06    1.9697218 
   32000       31.991    7027.0159   -424720.31    5532.4486      1367631          111          111          111    4505.3784    5009.2074    7082.7598    73572.452    1.9697218 
   32100       32.091    7021.5414   -424670.47    5548.9265      1367631          111          111          111    4804.6504    6794.1172    5048.0119    73515.134    1.9697218 
   32200       32.191     7036.471   -424778.97    5591.3032      1367631          111          111          111    4125.2456    5773.4648    6875.1992    73671.447    1.9697218 
   32300       32.291    7043.1447    -424921.7    5855.2925      1367631          111          111          111    6423.0574    5080.7239    6062.0963     73741.32    1.9697218 
   32400       32.391    7062.1247    -425179.3    7949.9123      1367631          111          111          111     8769.282    7582.9001    7497.5546    73940.039    1.9697218 
   32500       32.491    7057.8057    -425224.6    5119.4569      1367631          111          111          111    3089.0913    6247.7276     6021.552    73894.819    1.9697218 
   32600       32.591    7029.7755   -424975.29    3730.3057      1367631          111          111          111    2572.5288    4488.6542    4129.7341    73601.345    1.9697218 
   32700       32.691    7035.0608   -425109.07    4189.5365      1367631          111          111          111    3961.3369    3509.8749    5097.3978    73656.682    1.9697218 
   32800       32.791    7045.4905   -425208.64     5021.004      1367631          111          111          111    2830.1818    6464.5099    5768.3202    73765.881    1.9697218 
   32900       32.891    7056.0893   -425347.23    5601.0992      1367631          111          111          111    6124.0975    5592.5424    5086.6576    73876.849    1.9697218 
   33000       32.991    7020.7803   -425027.74    5753.9161      1367631          111          111          111    4276.6192    6445.7589    6539.3704    73507.166    1.9697218 
   33100       33.091    7004.5791   -424818.71    5169.5261      1367631          111          111          111    3214.4595    5309.6951    6984.4235    73337.541    1.9697218 
   33200       33.191     7030.421   -425010.27    6781.9529      1367631          111          111          111    6664.9313    6996.8456    6684.0817    73608.104    1.9697218 
   33300       33.291    7030.7739   -424980.92    4450.0264      1367631          111          111          111    4052.5769    1370.6776    7926.8245    73611.798    1.9697218 
   33400       33.391    6997.7145   -424554.65    4427.0563      1367631          111          111          111     3823.841    4251.7599     5205.568    73265.668    1.9697218 
   33500       33.491     7047.182   -425034.05    6265.1393      1367631          111          111          111    8675.8104    5052.3412    5067.2663     73783.59    1.9697218 
   33600       33.591    7049.5959   -425067.75    5821.2211      1367631          111          111          111    4412.0701    6899.2569    6152.3365    73808.864    1.9697218 
   33700       33.691    7037.9795   -424947.86    5317.6614      1367631          111          111          111     4635.919    5477.0892    5839.9761    73687.241    1.9697218 
   33800       33.791     7033.007   -424937.68    4996.5703      1367631          111          111          111    5470.7941    3420.4348    6098.4819    73635.179    1.9697218 
   33900       33.891    7014.0201   -424684.93     5386.256      1367631          111          111          111    6130.4724    4546.1295    5482.1662    73436.387    1.9697218 
   34000       33.991    7012.2541   -424634.25    5428.8234      1367631          111          111          111    6991.2087    3340.2334    5955.0281    73417.897    1.9697218 
   34100       34.091    7042.4781   -424897.98    5670.4175      1367631          111          111          111    5231.8862    5213.3256    6566.0408    73734.341    1.9697218 
   34200       34.191    7064.5645   -425146.58    4466.5449      1367631          111          111          111    4651.9392    1490.8271    7256.8685    73965.584    1.9697218 
   34300       34.291    7044.5838    -424983.2    5869.8394      1367631          111          111          111    5304.0184     5589.255    6716.2448    73756.387    1.9697218 
   34400       34.391    7048.2201   -424975.66    5869.9891      1367631          111          111          111    6878.0228    5410.3032    5321.6413    73794.459    1.9697218 
   34500       34.491    7018.9448   -424648.01    5804.2422      1367631          111          111          111    6493.9326    6535.9908    4382.8034    73487.949    1.9697218 
   34600       34.591    7051.9018   -424965.57    6484.2148      1367631          111          111          111    6197.2763    4946.8885    8308.4795    73833.007    1.9697218 
   34700       34.691    7029.0169   -424637.65     6245.816      1367631          111          111          111    5712.9744    6778.8431    6245.6304    73593.403    1.9697218 
   34800       34.791    7036.8225   -424726.59    6459.6873      1367631          111          111          111    5481.2162    7213.1887     6684.657    73675.127    1.9697218 
   34900       34.891    7055.6001    -424940.6    4061.4288      1367631          111          111          111    3347.6452    2994.2188    5842.4225    73871.728    1.9697218 
   35000       34.991    7053.5243   -425021.41    7233.9541      1367631          111          111          111    7626.9665    8228.5661    5846.3295    73849.994    1.9697218 
   35100       35.091    7048.0612   -425006.42    3380.8445      1367631          111          111          111    3362.0244    4202.6981     2577.811    73792.795    1.9697218 
   35200       35.191    7048.6644   -425098.41    4742.6335      1367631          111          111          111    5741.3778    4212.6028      4273.92    73799.111    1.9697218 
   35300       35.291    7017.8223   -424855.65    5656.0827      1367631          111          111          111    4026.0413    5880.1883    7062.0184    73476.196    1.9697218 
   35400       35.391    7058.1669   -425339.76    4782.7244      1367631          111          111          111    4319.1593    4305.9812    5723.0327    73898.601    1.9697218 
   35500       35.491    7056.1053   -425355.55    5570.7084      1367631          111          111          111    4529.3982    6000.6632    6182.0638    73877.016    1.9697218 
   35600       35.591    7033.4295   -425072.36    5309.8411      1367631          111          111          111     4927.001    5876.2263    5126.2962    73639.602    1.9697218 
   35700       35.691    7019.3774   -424876.35    7493.9647      1367631          111          111          111    6446.8023    6451.4903    9583.6014    73492.478    1.9697218 
   35800       35.791    7039.7927   -425082.68    5971.4271      1367631          111          111          111    4449.9092    5001.4883    8462.8836    73706.225    1.9697218 
   35900       35.891    7038.1978    -424986.8     7098.794      1367631          111          111          111    8266.5977    3857.0509    9172.7333    73689.527    1.9697218 
   36000       35.991    7042.8742   -425020.91     4921.451      1367631          111          111          111    5143.1478    3243.9327    6377.2723    73738.488    1.9697218 
   36100       36.091    7025.7552   -424848.76    4468.2768      1367631          111          111          111    5339.6826    5995.4282    2069.7194    73559.253    1.9697218 
   36200       36.191     7035.863   -424965.68    6500.1844      1367631          111          111          111     6058.036    6225.1469    7217.3703    73665.081    1.9697218 
   36300       36.291    7038.2268      -424949    4451.5307      1367631          111          111          111      3977.96    4511.8333    4864.7986     73689.83    1.9697218 
   36400       36.391    7023.4783   -424747.05    6108.0747      1367631          111          111          111    8686.7321    5050.5245    4586.9677    73535.414    1.9697218 
   36500       36.491    7045.4588    -424997.8    5612.4843      1367631          111          111          111    6266.5183    4118.9251    6452.0095    73765.548    1.9697218 
   36600       36.591    7025.9115   -424803.01    7665.7442      1367631          111          111          111    7267.3193    5908.6644    9821.2489    73560.889    1.9697218 
   36700       36.691    7062.4492   -425179.97    5707.3184      1367631          111          111          111    6125.8838     5678.869    5317.2023    73943.436    1.9697218 
   36800       36.791    7054.3558    -425106.5    5688.1614      1367631          111          111          111    6503.8444    3623.4497    6937.1901      73858.7    1.9697218 
   36900       36.891    7045.4505    -425103.4    5782.3822      1367631          111          111          111    6738.5141    6284.3462    4324.2863    73765.461    1.9697218 
   37000       36.991    7070.0825   -425410.19    6451.5983      1367631          111          111          111    6705.1738    5742.1399    6907.4811    74023.358    1.9697218 
   37100       37.091    7038.0351   -425126.07    4792.0977      1367631          111          111          111    6567.7055    3573.4984    4235.0891    73687.823    1.9697218 
   37200       37.191    7026.9865    -425021.8    6031.7974      1367631          111          111          111    6411.4154    5455.6058    6228.3709    73572.144    1.9697218 
   37300       37.291    7043.5174   -425182.64    5716.5686      1367631          111          111          111    4642.1226    6268.1244    6239.4587    73745.223    1.9697218 
   37400       37.391    7028.6217   -424958.09    6093.8166      1367631          111          111          111    5798.7111    6641.4308    5841.3081    73589.265    1.9697218 
   37500       37.491    7016.3754    -424796.2    5750.8638      1367631          111          111          111     5612.379    4957.5628    6682.6496    73461.047    1.9697218 
   37600       37.591    7024.6853   -424766.43    4526.0863      1367631          111          111          111    4387.8768    6397.3971    2792.9851    73548.052    1.9697218 
   37700       37.691    7030.3279   -424721.66    5037.2051      1367631          111          111          111    3448.9576     4858.112    6804.5458    73607.129    1.9697218 
   37800       37.791    7016.8535   -424458.31    4614.0572      1367631          111          111          111    4246.5642    6283.0725    3312.5349    73466.053    1.9697218 
   37900       37.891    7030.1023   -424549.68    4560.1538      1367631          111          111          111     5724.768    4734.3904    3221.3029    73604.766    1.9697218 
   38000       37.991    7014.1082   -424368.85    6358.5991      1367631          111          111          111     5812.347    6796.2424    6467.2079    73437.309    1.9697218 
   38100       38.091    7049.2994   -424642.86    6743.4143      1367631          111          111          111    6447.9702    7395.5284    6386.7443    73805.759    1.9697218 
   38200       38.191    7034.2896   -424489.48    4915.4463      1367631          111          111          111    5321.2303    4142.5562    5282.5524    73648.607    1.9697218 
   38300       38.291    7019.2851   -424238.98    4721.2418      1367631          111          111          111     4737.916    6194.6895    3231.1198    73491.511    1.9697218 
   38400       38.391    7029.9764   -424415.61    5909.6212      1367631          111          111          111    5483.6969    7105.8572    5139.3096    73603.448    1.9697218 
   38500       38.491     7052.831   -424738.92    4709.9419      1367631          111          111          111    5609.8887    3448.6033    5071.3338    73842.735    1.9697218 
   38600       38.591    7012.6439   -424336.75    4144.4698      1367631          111          111          111    2215.7054    3807.6514    6410.0527    73421.979    1.9697218 
   38700       38.691    7064.7193    -424944.4    4235.6002      1367631          111          111          111    3373.9588    5349.7035    3983.1384    73967.204    1.9697218 
   38800       38.791    7033.0562   -424690.97    5179.2827      1367631          111          111          111    3601.4505    6251.0931    5685.3045    73635.694    1.9697218 
   38900       38.891    7037.1106   -424762.66    5308.5861      1367631          111          111          111    6572.3723     3907.739    5445.6469    73678.143    1.9697218 
   39000       38.991    7067.4796   -425129.69    6467.4211      1367631          111          111          111    6544.6857    8171.9217     4685.656    73996.105    1.9697218 
   39100       39.091    7040.1199   -424892.67    4999.1964      1367631          111          111          111    4617.3302    7189.1072    3191.1519     73709.65    1.9697218 
   39200       39.191    7014.7378   -424638.63     6688.968      1367631          111          111          111    5974.7646    7879.8612    6212.2781    73443.901    1.9697218 
   39300       39.291    7041.3862   -424935.03    7363.4257      1367631          111          111          111    8756.5401    8268.8189    5064.9182    73722.909    1.9697218 
   39400       39.391    7049.5471   -425065.91    5334.1615      1367631          111          111          111    5806.8312    6070.5872     4125.066    73808.353    1.9697218 
   39500       39.491    7052.1924   -425091.75    6813.3742      1367631          111          111          111    7040.0889     7009.824    6390.2098    73836.048    1.9697218 
   39600       39.591    7013.2523   -424715.88     6954.575      1367631          111          111          111    7489.2467    6965.6099    6408.8683    73428.348    1.9697218 
   39700       39.691    7034.9837    -424932.6    4654.1342      1367631          111          111          111    2972.3223    5455.8054    5534.2749    73655.874    1.9697218 
   39800       39.791    7018.9062   -424806.14    5677.1301      1367631          111          111          111    6207.7479    6987.3279    3836.3146    73487.544    1.9697218 
   39900       39.891    7047.1434   -425141.94    6625.6788      1367631          111          111          111    7054.3048    5905.8007    6916.9307    73783.186    1.9697218 
   40000       39.991    7037.7122   -425162.75    5585.6357      1367631          111          111          111    6839.0019     4586.937    5330.9681    73684.442    1.9697218 
   40100       40.091    7012.9555   -424868.77    5986.2291      1367631          111          111          111    5734.7383    6835.2043    5388.7446    73425.241    1.9697218 
   40200       40.191    7014.5033   -424912.57    7012.9685      1367631          111          111          111    6314.7469    9339.9277    5384.2309    73441.446    1.9697218 
   40300       40.291    7049.5109   -425276.65    4685.8721      1367631          111          111          111    4454.4354     2650.239    6952.9419    73807.973    1.9697218 
   40400       40.391    7030.4088   -425103.38      6396.75      1367631          111          111          111    7610.3717    4782.4035    6797.4749    73607.975    1.9697218 
   40500       40.491    7042.9808   -425297.64    5763.3115      1367631          111          111          111    4241.0031    6472.9242     6576.007    73739.603    1.9697218 
   40600       40.591    7021.2787   -425107.06    5126.8882      1367631          111          111          111     6114.611    5045.7988    4220.2548    73512.384    1.9697218 
   40700       40.691    7033.7122   -425152.76    5341.7089      1367631          111          111          111    6628.9995    6406.7989    2989.3283    73642.562    1.9697218 
   40800       40.791    7038.1859   -425282.71    4165.4828      1367631          111          111          111     5666.229    4931.0908    1899.1284    73689.402    1.9697218 
   40900       40.891    7029.2961   -425172.88    4784.6866      1367631          111          111          111    7047.2688    3384.2393    3922.5516    73596.326    1.9697218 
   41000       40.991     7035.055   -425158.85    5611.6849      1367631          111          111          111    6751.0997       4906.7     5177.255    73656.622    1.9697218 
   41100       41.091    7012.7915   -424910.51    6998.2323      1367631          111          111          111    6474.1293    7491.5265    7029.0412    73423.524    1.9697218 
   41200       41.191    7012.4456   -424845.33    5223.9344      1367631          111          111          111    6789.2597    4277.0664     4605.477    73419.902    1.9697218 
   41300       41.291    7013.9694   -424861.45    5690.5425      1367631          111          111          111    5734.2627    5337.7651    5999.5998    73435.856    1.9697218 
   41400       41.391    7003.9391    -424639.5    3099.2302      1367631          111          111          111    3189.1593    1991.5234    4117.0079     73330.84    1.9697218 
   41500       41.491    7024.1579   -424722.59    5573.7705      1367631          111          111          111    4786.0375    5554.8387    6380.4352     73542.53    1.9697218 
   41600       41.591    7011.9813   -424589.04    3284.6025      1367631          111          111          111    1461.3132    4706.6663     3685.828     73415.04    1.9697218 
   41700       41.691    7057.1655   -425033.59    6266.5615      1367631          111          111          111    6287.4064    8316.1707    4196.1076    73888.117    1.9697218 
[...]
  861600      861.591    299.23986   -529536.13    67.178798    1168155.3    105.31741    105.31741    105.31741    145.31596   -276.84669    333.06713    3133.0242    2.3060741 
  861700      861.691    298.71782   -529531.05    37.137427    1168440.1    105.32598    105.32598    105.32598    261.32864    -719.7287    569.81235    3127.5584    2.3055119 
  861800      861.791    300.52902   -529536.37    189.08727    1168112.7    105.31614    105.31614    105.31614    786.55725   -520.03869    300.74325    3146.5216    2.3061582 
  861900      861.891    299.90915   -529509.62    415.18009    1167847.7    105.30817    105.30817    105.30817    954.06559   -404.33436    695.80905    3140.0316    2.3066815 
  862000      861.991    300.91997   -529517.95    -203.5727    1168616.6    105.33128    105.33128    105.33128   -92.291395   -563.50825    45.081559    3150.6148    2.3051636 
  862100      862.091    300.74894   -529540.79    17.987513    1167872.8    105.30893    105.30893    105.30893    33.055729   -541.73965    562.64646    3148.8241    2.3066318 
  862200      862.191    299.22492   -529530.09    214.79923      1167848    105.30818    105.30818    105.30818    118.35839    -287.7518    813.79109    3132.8677    2.3066809 
  862300      862.291    299.65795   -529531.89    55.308706    1168173.9    105.31797    105.31797    105.31797    448.74297     -619.325    336.50814    3137.4015    2.3060374 
  862400      862.391    299.46548   -529529.01    34.954283    1168245.7    105.32013    105.32013    105.32013    189.34218   -420.05805    335.57871    3135.3863    2.3058956 
  862500      862.491    300.44071   -529535.75    181.85602    1168319.9    105.32236    105.32236    105.32236    603.29024   -262.69945    204.97728     3145.597    2.3057492 
  862600      862.591    300.21087    -529536.8    10.693775    1168188.3    105.31841    105.31841    105.31841    370.03177   -448.12754     110.1771    3143.1905    2.3060089 
  862700      862.691    299.24153      -529535    62.060729    1168082.1    105.31522    105.31522    105.31522    576.47727    -805.6303    415.33521    3133.0416    2.3062185 
  862800      862.791     300.1908   -529547.78   -359.95582    1168139.3    105.31693    105.31693    105.31693   -742.32858   -809.57807     472.0392    3142.9804    2.3061056 
  862900      862.891    299.47902    -529540.8   -98.666363    1167913.3    105.31014    105.31014    105.31014    270.50973   -904.78985    338.28103    3135.5281     2.306552 
  863000      862.991    299.31757   -529527.37    43.044572    1168183.6    105.31827    105.31827    105.31827     414.4984   -367.15722     81.79253    3133.8378    2.3060181 
  863100      863.091    301.51793   -529533.07   -166.58092    1168210.9    105.31909    105.31909    105.31909    41.003913   -451.98016   -88.766526    3156.8754    2.3059642 
  863200      863.191    300.47193   -529521.97   -3.6643154    1168158.8    105.31752    105.31752    105.31752    241.97282   -586.25803    333.29226    3145.9239    2.3060672 
  863300      863.291    300.82162   -529547.55    29.035749    1168234.5    105.31979    105.31979    105.31979    45.730836   -490.88175    532.25816    3149.5851    2.3059178 
  863400      863.391    299.77021    -529541.4   -292.89265    1168325.9    105.32254    105.32254    105.32254   -132.98657   -816.59583     70.90445    3138.5768    2.3057373 
  863500      863.491    299.36302   -529532.92   -338.45929    1168346.6    105.32316    105.32316    105.32316   -133.10048   -857.20337   -25.074009    3134.3136    2.3056965 
  863600      863.591    299.68505   -529527.72    53.376206    1167675.9    105.30301    105.30301    105.30301    276.74535   -565.81832    449.20159    3137.6853    2.3070208 
  863700      863.691    299.52021   -529511.49    221.72343    1167953.9    105.31136    105.31136    105.31136    539.09851   -614.71087    740.78266    3135.9594    2.3064717 
  863800      863.791     301.7871   -529522.04   -71.903962    1168371.9    105.32392    105.32392    105.32392   -79.409005   -747.60237    611.29949    3159.6936    2.3056466 
  863900      863.891    300.80976   -529530.39   -99.206021    1167954.1    105.31137    105.31137    105.31137    361.02644   -646.12947   -12.515039    3149.4609    2.3064712 
  864000      863.991    300.83304   -529543.02   -12.247936    1168194.4    105.31859    105.31859    105.31859   -342.15639   -196.99191    502.40449    3149.7047    2.3059969 
  864100      864.091    299.95403   -529538.56    1.3005362    1168123.2    105.31645    105.31645    105.31645    126.78668   -714.09216    591.20709    3140.5015    2.3061375 
  864200      864.191    299.11459   -529534.82   -195.47171    1168349.6    105.32325    105.32325    105.32325    1.4270072   -710.62047    122.77833    3131.7125    2.3056906 
  864300      864.291    299.68651   -529540.73   -348.63144    1168417.8     105.3253     105.3253     105.3253   -170.07102   -860.26688   -15.556421    3137.7005     2.305556 
  864400      864.391     300.6924   -529532.46    89.542708    1167702.3     105.3038     105.3038     105.3038    477.12101     -324.437    115.94412    3148.2321    2.3069686 
  864500      864.491    300.78164    -529519.7   -12.710417      1168217    105.31927    105.31927    105.31927    175.59674   -540.48913    326.76114    3149.1665    2.3059522 
  864600      864.591     300.6396   -529529.05   -368.21589    1168584.5    105.33031    105.33031    105.33031   -541.10297    -608.4712    44.926488    3147.6793    2.3052271 
  864700      864.691    299.83437   -529531.99    133.20018      1167594    105.30055    105.30055    105.30055    766.25543   -488.56118     121.9063    3139.2486    2.3071826 
  864800      864.791    300.16534   -529538.22   -356.96949    1168045.4    105.31411    105.31411    105.31411   -391.32129   -1006.3409    326.75369    3142.7139     2.306291 
  864900      864.891    300.25996   -529538.09    39.725211    1168008.2      105.313      105.313      105.313   -187.42804   -253.26701    559.87068    3143.7046    2.3063645 
  865000      864.991    299.35193   -529533.12    110.13486    1167635.2    105.30178    105.30178    105.30178    223.74518   -226.27679    332.93619    3134.1975    2.3071012 
  865100      865.091    300.27785   -529551.68   -163.27469    1168404.4     105.3249     105.3249     105.3249    159.55454   -1095.0386    445.66004    3143.8918    2.3055824 
  865200      865.191    298.29035   -529540.39   -400.16119    1168764.2    105.33571    105.33571    105.33571    322.15478    -1218.405   -304.23336    3123.0829    2.3048725 
  865300      865.291     299.5465   -529540.31    343.97205    1167926.6    105.31054    105.31054    105.31054    398.26289   -145.44634    779.09961    3136.2346    2.3065256 
  865400      865.391    300.55287   -529527.99   -524.09206    1168390.3    105.32448    105.32448    105.32448   -331.43879   -877.36077   -363.47663    3146.7713    2.3056102 
  865500      865.491    300.76808   -529528.47    159.75002    1167549.2     105.2992     105.2992     105.2992    291.29339   -310.85783    498.81452    3149.0245    2.3072711 
  865600      865.591    300.39895    -529534.9   -56.651024    1168062.2    105.31462    105.31462    105.31462    298.83923   -426.89659   -41.895713    3145.1597    2.3062579 
  865700      865.691    299.22421   -529531.97    119.17803      1167727    105.30454    105.30454    105.30454     205.1643   -511.00748    663.37728    3132.8603    2.3069198 
  865800      865.791    299.67556   -529534.77     151.1414    1168044.1    105.31407    105.31407    105.31407    334.65951   -178.72729    297.49199    3137.5859    2.3062936 
  865900      865.891    300.97843   -529543.47   -117.43763    1168559.8    105.32957    105.32957    105.32957    35.869232   -1000.3938    612.21168    3151.2269    2.3052757 
  866000      865.991    299.26422   -529522.47     533.0419    1167781.2    105.30617    105.30617    105.30617    816.17478   -169.13198    952.08289    3133.2792    2.3068129 
  866100      866.091    299.07419   -529522.55   -170.02763    1168179.7    105.31815    105.31815    105.31815   -305.72812   -381.34572    176.99097    3131.2895    2.3060258 
  866200      866.191    299.33984   -529551.46   -56.935421    1168068.3     105.3148     105.3148     105.3148    183.13635   -295.22385   -58.718764    3134.0709    2.3062459 
  866300      866.291    299.69473   -529552.68   -59.395903    1168359.4    105.32355    105.32355    105.32355    82.218812   -636.73284    376.32632    3137.7866    2.3056712 
  866400      866.391    300.02626   -529539.29     -370.942    1168068.8    105.31482    105.31482    105.31482   -228.57754   -854.95099   -29.297467    3141.2577    2.3062449 
  866500      866.491    299.64974   -529519.39    421.45217    1168081.8    105.31521    105.31521    105.31521     1077.986   -143.30524    329.67572    3137.3156    2.3062192 
  866600      866.591    300.64723   -529528.66     248.1403    1168050.8    105.31427    105.31427    105.31427    535.88803    -405.5197    614.05257    3147.7592    2.3062804 
  866700      866.691    300.80219   -529539.43    206.66601    1168174.4    105.31799    105.31799    105.31799    151.17409   -227.05187    695.87582    3149.3816    2.3060363 
  866800      866.791    300.65539   -529545.25    129.13489    1168125.6    105.31652    105.31652    105.31652    302.22209   -371.58831    456.77088    3147.8446    2.3061326 
  866900      866.891    300.53548   -529541.28   -171.57966    1168126.5    105.31655    105.31655    105.31655    24.899101     -684.128    144.48991    3146.5892    2.3061309 
  867000      866.991    300.03845   -529536.16    215.04779    1168214.2    105.31919    105.31919    105.31919    438.53238   -344.97374    551.58472    3141.3853    2.3059577 
  867100      867.091    299.88002   -529537.98    17.527661    1167924.1    105.31047    105.31047    105.31047    340.86426   -405.98102    117.69974    3139.7266    2.3065306 
  867200      867.191    298.99276    -529543.4    -136.8343    1168215.6    105.31923    105.31923    105.31923     149.6216   -675.93932     115.8148     3130.437     2.305955 
  867300      867.291    298.52315   -529544.08    697.71742    1167163.9    105.28761    105.28761    105.28761    1018.1757   -366.05423    1441.0308    3125.5202    2.3080328 
  867400      867.391    299.97251   -529541.98   -490.95382    1168730.8    105.33471    105.33471    105.33471   -245.15803   -756.38836   -471.31506     3140.695    2.3049384 
  867500      867.491    300.24606   -529521.51   -285.79909    1168317.1    105.32228    105.32228    105.32228   -343.70906   -577.60778    63.919561     3143.559    2.3057547 
  867600      867.591    300.30324    -529522.8   -320.36993    1168005.5    105.31291    105.31291    105.31291    226.86048   -1356.7612    168.79098    3144.1577    2.3063697 
  867700      867.691    300.35174   -529536.74    80.290836    1167971.9    105.31191    105.31191    105.31191    204.06853   -521.76828    558.57226    3144.6654    2.3064361 
  867800      867.791    298.64838   -529526.19     80.87231    1168224.7     105.3195     105.3195     105.3195    681.73615   -559.97241    120.85319    3126.8314    2.3059371 
  867900      867.891    298.89736   -529529.47   -25.845242    1168483.7    105.32729    105.32729    105.32729     5.834998   -271.21161    187.84089    3129.4381    2.3054258 
  868000      867.991     300.7496    -529542.7    4.6875405    1167638.7    105.30189    105.30189    105.30189    341.63268   -726.23986     398.6698     3148.831    2.3070942 
  868100      868.091    301.37037   -529537.72    289.23707    1167740.2    105.30494    105.30494    105.30494    373.20358   -448.91496    943.42261    3155.3305    2.3068937 
  868200      868.191    301.30919   -529529.39   -42.200607    1168362.8    105.32365    105.32365    105.32365    208.02193    -576.9596    242.33585    3154.6899    2.3056645 
  868300      868.291    300.25443   -529528.79   -73.722942    1168093.2    105.31555    105.31555    105.31555    426.40822   -873.28587    225.70883    3143.6467    2.3061967 
  868400      868.391    300.76877   -529546.76    226.68756    1167928.7    105.31061    105.31061    105.31061    545.45307   -558.11466    692.72428    3149.0317    2.3065215 
  868500      868.491    300.41164   -529546.42    -432.1012    1168303.7    105.32188    105.32188    105.32188   -17.821003   -1084.7825   -193.70013    3145.2926    2.3057811 
  868600      868.591    299.64992      -529533   -309.64344    1168093.9    105.31557    105.31557    105.31557    -212.9455   -929.91333    213.92851    3137.3174    2.3061952 
  868700      868.691    301.66395   -529532.23    -55.87537    1168025.4    105.31351    105.31351    105.31351    323.45872   -657.69686    166.61203    3158.4042    2.3063304 
  868800      868.791     302.8612    -529532.7   -37.857565    1168402.7    105.32485    105.32485    105.32485    459.21929   -762.18912    189.39714    3170.9394    2.3055857 
  868900      868.891     300.2748   -529523.08     283.2642    1168262.4    105.32063    105.32063    105.32063    528.22106   -403.54637     725.1179    3143.8598    2.3058627 
  869000      868.991    301.26502    -529542.3   -71.631449    1167499.2     105.2977     105.2977     105.2977    11.792314    -687.7363    461.04964    3154.2275    2.3073699 
  869100      869.091    299.50503   -529529.81   -170.58976    1168259.8    105.32056    105.32056    105.32056   -211.22003   -728.06559    427.51633    3135.8004    2.3058677 
  869200      869.191    299.73847   -529540.11    388.27604    1168135.8    105.31683    105.31683    105.31683    477.14915    109.84479    577.83419    3138.2445    2.3061124 
  869300      869.291    300.16984   -529548.63   -109.47393    1167911.6    105.31009    105.31009    105.31009    412.53814   -1369.2519    628.29199     3142.761    2.3065552 
  869400      869.391    299.18933   -529542.21   -539.25103    1168597.2    105.33069    105.33069    105.33069   -411.97229   -770.13958   -435.64123    3132.4951     2.305202 
  869500      869.491    299.29585   -529532.73    112.03972    1167498.6    105.29768    105.29768    105.29768    550.99324   -455.57005    240.69596    3133.6104    2.3073712 
  869600      869.591    300.55807   -529528.16   -282.68056    1168350.7    105.32329    105.32329    105.32329   -239.89345   -997.82596    389.67772    3146.8257    2.3056883 
  869700      869.691    301.32777   -529531.87   -217.97945      1167789    105.30641    105.30641    105.30641    261.16553   -967.88521    52.781346    3154.8845    2.3067974 
  869800      869.791    298.82735   -529523.85   -432.64009    1168035.4    105.31381    105.31381    105.31381   -428.71356   -685.84911   -183.35762    3128.7052    2.3063108 
  869900      869.891    298.22601   -529527.66   -12.962996      1167814    105.30716    105.30716    105.30716     200.9842   -565.42969     325.5565    3122.4092    2.3067479 
  870000      869.991    299.71861   -529536.92    72.747114    1168260.3    105.32057    105.32057    105.32057    368.98734   -761.04586    610.29986    3138.0366    2.3058668 
  870009          870    300.24053   -529541.78    80.440934    1168193.9    105.31857    105.31857    105.31857    117.36832   -489.85656    613.81104    3143.5011    2.3059979 
Loop time of 6387.77 on 4 procs for 100000 steps with 81000 atoms

Performance: 1.353 ns/day, 17.744 hours/ns, 15.655 timesteps/s
99.8% CPU use with 4 MPI tasks x no OpenMP threads

MPI task timing breakdown:
Section |  min time  |  avg time  |  max time  |%varavg|  %CPU | %total
-----------------------------------------------------------------------
Pair    | 5353.7     | 5382.8     | 5457.3     |  58.9 |  99.8 | 84.27
Neigh   | 57.043     | 57.563     | 57.981     |   4.9 |  99.7 |  0.90
Comm    | 675        | 749.88     | 778.85     | 158.5 |  99.6 | 11.74
Output  | 7.4658     | 7.4833     | 7.5209     |   0.8 |  99.1 |  0.12
Modify  | 157.81     | 158.18     | 158.79     |   2.9 |  99.4 |  2.48
Other   |            | 31.89      |            |       |       |  0.50

Nlocal:    20250 ave 20441 max 20138 min
Histogram: 2 0 0 1 0 0 0 0 0 1
Nghost:    10661 ave 10709 max 10589 min
Histogram: 1 0 0 0 0 0 1 1 0 1
Neighs:    0 ave 0 max 0 min
Histogram: 4 0 0 0 0 0 0 0 0 0
FullNghs:  641472 ave 654562 max 634111 min
Histogram: 1 1 0 1 0 0 0 0 0 1

Total # of neighbors = 2565888
Ave neighs/atom = 31.6776
Neighbor list builds = 949
Dangerous builds = 0
unfix		3


# --------- MINIMIZATION -------------------------------------------------------
minimize        1.0e-10 1.0e-10 100000 100000
WARNING: Using 'neigh_modify every 1 delay 0 check yes' setting during minimization (src/min.cpp:178)
Per MPI rank memory allocation (min/avg/max) = 13.34 | 13.34 | 13.34 Mbytes
Step Time Temp PotEng Press Volume Lx Ly Lz Pxx Pyy Pzz KinEng Density 
  870009          870    300.24053   -529541.78    80.440934    1168193.9    105.31857    105.31857    105.31857    117.36832   -489.85656    613.81104    3143.5011    2.3059979 
  870100      870.091    300.24053   -532632.27   -1107.7871    1168193.9    105.31857    105.31857    105.31857   -875.39802   -1731.0772   -716.88596    3143.5011    2.3059979 
  870200      870.191    300.24053   -532696.55   -1102.7075    1168193.9    105.31857    105.31857    105.31857   -877.89633   -1689.6303   -740.59598    3143.5011    2.3059979 
  870282      870.273    300.24053   -532721.65   -1016.3346    1168193.9    105.31857    105.31857    105.31857   -785.04166   -1603.4552   -660.50693    3143.5011    2.3059979 
Loop time of 38.4527 on 4 procs for 273 steps with 81000 atoms

99.8% CPU use with 4 MPI tasks x no OpenMP threads

Minimization stats:
  Stopping criterion = energy tolerance
  Energy initial, next-to-last, final = 
        -529541.780053     -532721.648728     -532721.648765
  Force two-norm initial, final = 482.048 12.5569
  Force max component initial, final = 12.7651 1.55349
  Final line search alpha, max atom move = 0.0179277 0.0278505
  Iterations, force evaluations = 273 592

MPI task timing breakdown:
Section |  min time  |  avg time  |  max time  |%varavg|  %CPU | %total
-----------------------------------------------------------------------
Pair    | 33.148     | 33.326     | 33.733     |   4.1 |  99.9 | 86.67
Neigh   | 0          | 0          | 0          |   0.0 | 100.0 |  0.00
Comm    | 3.8864     | 4.2924     | 4.4683     |  11.5 |  99.6 | 11.16
Output  | 0.0015048  | 0.0015762  | 0.0017897  |   0.3 | 100.0 |  0.00
Modify  | 0          | 0          | 0          |   0.0 | 100.0 |  0.00
Other   |            | 0.8327     |            |       |       |  2.17

Nlocal:    20250 ave 20451 max 20137 min
Histogram: 2 0 0 1 0 0 0 0 0 1
Nghost:    10656.5 ave 10727 max 10566 min
Histogram: 1 0 0 0 0 1 1 0 0 1
Neighs:    0 ave 0 max 0 min
Histogram: 4 0 0 0 0 0 0 0 0 0
FullNghs:  641340 ave 654255 max 634037 min
Histogram: 1 1 0 1 0 0 0 0 0 1

Total # of neighbors = 2565360
Ave neighs/atom = 31.6711
Neighbor list builds = 0
Dangerous builds = 0

# --------- fix rdf output -----------------------------------------------------
#reset_timestep	0
#fix 		10 all ave/time 100 1 100 c_myRDF[*] file ${filename}_rdf.txt mode vector
#run		10
#unfix		10

# ---------- OUTPUTS -----------------------------------------------------------

# WRITE FILES
write_data	final_${filename}.data
write_data	final_SiO2-glass-thesisquench.data
write_restart	final_${filename}.restart
write_restart	final_SiO2-glass-thesisquench.restart

################################################################################
# ---------- SIMULATION DONE ---------------------------------------------------
print		"All done"
All done
print		"Number of atoms = $N"
Number of atoms = 81000
Total wall time: 16:32:13
